# Solver information
# Time        	p_rgh_solver  	p_rgh_initial 	p_rgh_final   	p_rgh_iters   	p_rgh_converged
0.001         	GAMG	1.000000e+00	8.723480e-03	4	true
0.002         	GAMG	2.428930e-01	1.764380e-03	12	true
0.003         	GAMG	1.345030e-01	8.398990e-04	6	true
0.004         	GAMG	1.355200e-01	1.116390e-03	8	true
0.005         	GAMG	1.593180e-01	1.582950e-03	6	true
0.006         	GAMG	1.837350e-01	1.768440e-03	7	true
0.007         	GAMG	2.083890e-01	2.030320e-03	7	true
0.008         	GAMG	2.274170e-01	1.844790e-03	9	true
0.009         	GAMG	2.511970e-01	1.852860e-03	9	true
0.01          	GAMG	2.719240e-01	1.845450e-03	9	true
0.011         	GAMG	2.922100e-01	2.907400e-03	8	true
0.012         	GAMG	2.962640e-01	2.920010e-03	8	true
0.013         	GAMG	3.104700e-01	2.946640e-03	8	true
0.014         	GAMG	3.221450e-01	2.965870e-03	8	true
0.015         	GAMG	3.326130e-01	2.980210e-03	8	true
0.016         	GAMG	3.423470e-01	2.988330e-03	8	true
0.017         	GAMG	3.515440e-01	2.985750e-03	8	true
0.018         	GAMG	3.610800e-01	2.970640e-03	8	true
0.019         	GAMG	3.701570e-01	2.943620e-03	8	true
0.02          	GAMG	3.782770e-01	2.906660e-03	8	true
0.021         	GAMG	3.864130e-01	3.841620e-03	7	true
0.022         	GAMG	3.926910e-01	3.782720e-03	7	true
0.023         	GAMG	4.007990e-01	2.783310e-03	6	true
0.024         	GAMG	4.108060e-01	2.754980e-03	6	true
0.025         	GAMG	4.182430e-01	2.729400e-03	6	true
0.026         	GAMG	4.257790e-01	4.230820e-03	5	true
0.027         	GAMG	4.290250e-01	4.182780e-03	5	true
0.028         	GAMG	4.369510e-01	4.142130e-03	5	true
0.029         	GAMG	4.471850e-01	4.116740e-03	5	true
0.03          	GAMG	4.528290e-01	4.081390e-03	5	true
0.031         	GAMG	4.599580e-01	4.031130e-03	5	true
0.032         	GAMG	4.668860e-01	3.981940e-03	5	true
0.033         	GAMG	4.736220e-01	3.933900e-03	5	true
0.034         	GAMG	4.802070e-01	3.886570e-03	5	true
0.035         	GAMG	4.865810e-01	3.839780e-03	5	true
0.036         	GAMG	4.928030e-01	3.793200e-03	5	true
0.037         	GAMG	4.988360e-01	4.878150e-03	4	true
0.038         	GAMG	5.003220e-01	4.816300e-03	4	true
0.039         	GAMG	5.067850e-01	4.761700e-03	4	true
0.04          	GAMG	5.129530e-01	4.706320e-03	4	true
0.041         	GAMG	5.187930e-01	4.650320e-03	4	true
0.042         	GAMG	5.244040e-01	4.594240e-03	4	true
0.043         	GAMG	5.299210e-01	4.538390e-03	4	true
0.044         	GAMG	5.352360e-01	4.482940e-03	4	true
0.045         	GAMG	5.404130e-01	4.427730e-03	4	true
0.046         	GAMG	5.454340e-01	4.373080e-03	4	true
0.047         	GAMG	5.503180e-01	4.319250e-03	4	true
0.048         	GAMG	5.551340e-01	4.266230e-03	4	true
0.049         	GAMG	5.598550e-01	4.214050e-03	4	true
0.05          	GAMG	5.644890e-01	4.162800e-03	4	true
0.051         	GAMG	5.690440e-01	4.112300e-03	4	true
0.052         	GAMG	5.734910e-01	4.062440e-03	4	true
0.053         	GAMG	5.778410e-01	4.013320e-03	4	true
0.054         	GAMG	5.820710e-01	3.965100e-03	4	true
0.055         	GAMG	5.862380e-01	3.917620e-03	4	true
0.056         	GAMG	5.903240e-01	3.870980e-03	4	true
0.057         	GAMG	5.943320e-01	3.825080e-03	4	true
0.058         	GAMG	5.982670e-01	3.779990e-03	4	true
0.059         	GAMG	6.021220e-01	3.735640e-03	4	true
0.06          	GAMG	6.058930e-01	3.692140e-03	4	true
0.061         	GAMG	6.096090e-01	3.649380e-03	4	true
0.062         	GAMG	6.132400e-01	3.607400e-03	4	true
0.063         	GAMG	6.168000e-01	3.566090e-03	4	true
0.064         	GAMG	6.202870e-01	3.525490e-03	4	true
0.065         	GAMG	6.237090e-01	3.485590e-03	4	true
0.066         	GAMG	6.270660e-01	3.446440e-03	4	true
0.067         	GAMG	6.303600e-01	3.407980e-03	4	true
0.068         	GAMG	6.335900e-01	3.370170e-03	4	true
0.069         	GAMG	6.367510e-01	3.333050e-03	4	true
0.07          	GAMG	6.398530e-01	3.296590e-03	4	true
0.071         	GAMG	6.429010e-01	3.260780e-03	4	true
0.072         	GAMG	6.458890e-01	3.225630e-03	4	true
0.073         	GAMG	6.488250e-01	3.191110e-03	4	true
0.074         	GAMG	6.517140e-01	3.157250e-03	4	true
0.075         	GAMG	6.545410e-01	3.123960e-03	4	true
0.076         	GAMG	6.573140e-01	3.091280e-03	4	true
0.077         	GAMG	6.600400e-01	3.059230e-03	4	true
0.078         	GAMG	6.627280e-01	3.027750e-03	4	true
0.079         	GAMG	6.653570e-01	2.996820e-03	4	true
0.08          	GAMG	6.679380e-01	2.966420e-03	4	true
0.081         	GAMG	6.704710e-01	2.936580e-03	4	true
0.082         	GAMG	6.729590e-01	2.907240e-03	4	true
0.083         	GAMG	6.753960e-01	2.878440e-03	4	true
0.084         	GAMG	6.777920e-01	2.850140e-03	4	true
0.085         	GAMG	6.801410e-01	2.822340e-03	4	true
0.086         	GAMG	6.824470e-01	2.795030e-03	4	true
0.087         	GAMG	6.847140e-01	2.768210e-03	4	true
0.088         	GAMG	6.869430e-01	2.741860e-03	4	true
0.089         	GAMG	6.891330e-01	2.715980e-03	4	true
0.09          	GAMG	6.912780e-01	2.690530e-03	4	true
0.091         	GAMG	6.933840e-01	2.665520e-03	4	true
0.092         	GAMG	6.954560e-01	2.640940e-03	4	true
0.093         	GAMG	6.974890e-01	6.925700e-03	3	true
0.094         	GAMG	6.976610e-01	6.887770e-03	3	true
0.095         	GAMG	6.997730e-01	6.827490e-03	3	true
0.096         	GAMG	7.018700e-01	6.767820e-03	3	true
0.097         	GAMG	7.038980e-01	6.708940e-03	3	true
0.098         	GAMG	7.058670e-01	6.650850e-03	3	true
0.099         	GAMG	7.077820e-01	6.593590e-03	3	true
0.1           	GAMG	7.096540e-01	6.537180e-03	3	true
0.101         	GAMG	7.114800e-01	6.481630e-03	3	true
0.102         	GAMG	7.132660e-01	6.426960e-03	3	true
0.103         	GAMG	7.150140e-01	6.373110e-03	3	true
0.104         	GAMG	7.167290e-01	6.320150e-03	3	true
0.105         	GAMG	7.184120e-01	7.137510e-03	1	true
0.106         	GAMG	6.695420e-01	6.462790e-03	3	true
0.107         	GAMG	7.277710e-01	7.080910e-03	1	true
0.108         	GAMG	6.779780e-01	6.399520e-03	3	true
0.109         	GAMG	7.349300e-01	7.002240e-03	1	true
0.11          	GAMG	6.847050e-01	6.323800e-03	3	true
0.111         	GAMG	7.404920e-01	6.913270e-03	1	true
0.112         	GAMG	6.902780e-01	6.242200e-03	3	true
0.113         	GAMG	7.450650e-01	6.819660e-03	1	true
0.114         	GAMG	6.951010e-01	6.919530e-03	1	true
0.115         	GAMG	6.961580e-01	6.910430e-03	1	true
0.116         	GAMG	7.001990e-01	6.884270e-03	1	true
0.117         	GAMG	7.039740e-01	6.852990e-03	1	true
0.118         	GAMG	7.074370e-01	6.818330e-03	1	true
0.119         	GAMG	7.105690e-01	6.781570e-03	1	true
0.12          	GAMG	7.134110e-01	6.743080e-03	1	true
0.121         	GAMG	7.160180e-01	6.703430e-03	1	true
0.122         	GAMG	7.184340e-01	6.662910e-03	1	true
0.123         	GAMG	7.206920e-01	6.621780e-03	1	true
0.124         	GAMG	7.228150e-01	6.580470e-03	1	true
0.125         	GAMG	7.248190e-01	6.538910e-03	1	true
0.126         	GAMG	7.267210e-01	6.497360e-03	1	true
0.127         	GAMG	7.285370e-01	6.455800e-03	1	true
0.128         	GAMG	7.302730e-01	6.414420e-03	1	true
0.129         	GAMG	7.319390e-01	6.373270e-03	1	true
0.13          	GAMG	7.335420e-01	6.332380e-03	1	true
0.131         	GAMG	7.350880e-01	6.291750e-03	1	true
0.132         	GAMG	7.365820e-01	6.251560e-03	1	true
0.133         	GAMG	7.380330e-01	6.211760e-03	1	true
0.134         	GAMG	7.394410e-01	6.172310e-03	1	true
0.135         	GAMG	7.408090e-01	6.133280e-03	1	true
0.136         	GAMG	7.421420e-01	6.094670e-03	1	true
0.137         	GAMG	7.434400e-01	6.056520e-03	1	true
0.138         	GAMG	7.447040e-01	6.018790e-03	1	true
0.139         	GAMG	7.459400e-01	5.981550e-03	1	true
0.14          	GAMG	7.471480e-01	5.944760e-03	1	true
0.141         	GAMG	7.483300e-01	5.908420e-03	1	true
0.142         	GAMG	7.494880e-01	5.872570e-03	1	true
0.143         	GAMG	7.506220e-01	5.837120e-03	1	true
0.144         	GAMG	7.517320e-01	5.802150e-03	1	true
0.145         	GAMG	7.528210e-01	5.767650e-03	1	true
0.146         	GAMG	7.538900e-01	5.733590e-03	1	true
0.147         	GAMG	7.549370e-01	5.699970e-03	1	true
0.148         	GAMG	7.559670e-01	5.666830e-03	1	true
0.149         	GAMG	7.569780e-01	5.634130e-03	1	true
0.15          	GAMG	7.579710e-01	5.601800e-03	1	true
0.151         	GAMG	7.589470e-01	5.569900e-03	1	true
0.152         	GAMG	7.599070e-01	5.538480e-03	1	true
0.153         	GAMG	7.608510e-01	5.507450e-03	1	true
0.154         	GAMG	7.617790e-01	5.476780e-03	1	true
0.155         	GAMG	7.626910e-01	5.446550e-03	1	true
0.156         	GAMG	7.635870e-01	5.416700e-03	1	true
0.157         	GAMG	7.644690e-01	5.387250e-03	1	true
0.158         	GAMG	7.653350e-01	5.358160e-03	1	true
0.159         	GAMG	7.661900e-01	5.329470e-03	1	true
0.16          	GAMG	7.670310e-01	5.301140e-03	1	true
0.161         	GAMG	7.678590e-01	5.273200e-03	1	true
0.162         	GAMG	7.686740e-01	5.245630e-03	1	true
0.163         	GAMG	7.694780e-01	5.218370e-03	1	true
0.164         	GAMG	7.702700e-01	5.191500e-03	1	true
0.165         	GAMG	7.710490e-01	5.164990e-03	1	true
0.166         	GAMG	7.718170e-01	5.138760e-03	1	true
0.167         	GAMG	7.725730e-01	5.112910e-03	1	true
0.168         	GAMG	7.733170e-01	5.087340e-03	1	true
0.169         	GAMG	7.740510e-01	5.062110e-03	1	true
0.17          	GAMG	7.747750e-01	5.037180e-03	1	true
0.171         	GAMG	7.754870e-01	5.012620e-03	1	true
0.172         	GAMG	7.761900e-01	4.988320e-03	1	true
0.173         	GAMG	7.768840e-01	4.964310e-03	1	true
0.174         	GAMG	7.775660e-01	4.940610e-03	1	true
0.175         	GAMG	7.782390e-01	4.917210e-03	1	true
0.176         	GAMG	7.789030e-01	4.894080e-03	1	true
0.177         	GAMG	7.795570e-01	4.871220e-03	1	true
0.178         	GAMG	7.802020e-01	4.848700e-03	1	true
0.179         	GAMG	7.808380e-01	4.826380e-03	1	true
0.18          	GAMG	7.814650e-01	4.804350e-03	1	true
0.181         	GAMG	7.820840e-01	4.782580e-03	1	true
0.182         	GAMG	7.826950e-01	4.761070e-03	1	true
0.183         	GAMG	7.832990e-01	4.739840e-03	1	true
0.184         	GAMG	7.838940e-01	4.718840e-03	1	true
0.185         	GAMG	7.844810e-01	4.698080e-03	1	true
0.186         	GAMG	7.850600e-01	4.677580e-03	1	true
0.187         	GAMG	7.856310e-01	4.657320e-03	1	true
0.188         	GAMG	7.861960e-01	4.637290e-03	1	true
0.189         	GAMG	7.867530e-01	4.617480e-03	1	true
0.19          	GAMG	7.873020e-01	4.597900e-03	1	true
0.191         	GAMG	7.878450e-01	4.578550e-03	1	true
0.192         	GAMG	7.883810e-01	4.559400e-03	1	true
0.193         	GAMG	7.889100e-01	4.540490e-03	1	true
0.194         	GAMG	7.894320e-01	4.521810e-03	1	true
0.195         	GAMG	7.899480e-01	4.503340e-03	1	true
0.196         	GAMG	7.904560e-01	4.485060e-03	1	true
0.197         	GAMG	7.909600e-01	4.466970e-03	1	true
0.198         	GAMG	7.914560e-01	4.449120e-03	1	true
0.199         	GAMG	7.919470e-01	4.431440e-03	1	true
0.2           	GAMG	7.924300e-01	4.413960e-03	1	true
0.201         	GAMG	7.929100e-01	4.396700e-03	1	true
0.202         	GAMG	7.933810e-01	4.379570e-03	1	true
0.203         	GAMG	7.938460e-01	4.362670e-03	1	true
0.204         	GAMG	7.943060e-01	4.345930e-03	1	true
0.205         	GAMG	7.947620e-01	4.329380e-03	1	true
0.206         	GAMG	7.952110e-01	4.313030e-03	1	true
0.207         	GAMG	7.956540e-01	4.296830e-03	1	true
0.208         	GAMG	7.960880e-01	4.280760e-03	1	true
0.209         	GAMG	7.965180e-01	4.264910e-03	1	true
0.21          	GAMG	7.969420e-01	4.249180e-03	1	true
0.211         	GAMG	7.973620e-01	4.233640e-03	1	true
0.212         	GAMG	7.977760e-01	4.218270e-03	1	true
0.213         	GAMG	7.981860e-01	4.203050e-03	1	true
0.214         	GAMG	7.985910e-01	4.187990e-03	1	true
0.215         	GAMG	7.989920e-01	4.173080e-03	1	true
0.216         	GAMG	7.993880e-01	4.158340e-03	1	true
0.217         	GAMG	7.997790e-01	4.143730e-03	1	true
0.218         	GAMG	8.001650e-01	4.129280e-03	1	true
0.219         	GAMG	8.005470e-01	4.114970e-03	1	true
0.22          	GAMG	8.009240e-01	4.100810e-03	1	true
0.221         	GAMG	8.012970e-01	4.086790e-03	1	true
0.222         	GAMG	8.016670e-01	4.072910e-03	1	true
0.223         	GAMG	8.020310e-01	4.059170e-03	1	true
0.224         	GAMG	8.023920e-01	4.045580e-03	1	true
0.225         	GAMG	8.027480e-01	4.032100e-03	1	true
0.226         	GAMG	8.031000e-01	4.018760e-03	1	true
0.227         	GAMG	8.034480e-01	4.005550e-03	1	true
0.228         	GAMG	8.037930e-01	3.992470e-03	1	true
0.229         	GAMG	8.041340e-01	3.979490e-03	1	true
0.23          	GAMG	8.044720e-01	3.966670e-03	1	true
0.231         	GAMG	8.048050e-01	3.953980e-03	1	true
0.232         	GAMG	8.051340e-01	3.941380e-03	1	true
0.233         	GAMG	8.054600e-01	3.928950e-03	1	true
0.234         	GAMG	8.057820e-01	3.916570e-03	1	true
0.235         	GAMG	8.060990e-01	3.904370e-03	1	true
0.236         	GAMG	8.064130e-01	3.892220e-03	1	true
0.237         	GAMG	8.067230e-01	3.880230e-03	1	true
0.238         	GAMG	8.070300e-01	3.868320e-03	1	true
0.239         	GAMG	8.073340e-01	3.856540e-03	1	true
0.24          	GAMG	8.076360e-01	3.844880e-03	1	true
0.241         	GAMG	8.079330e-01	3.833310e-03	1	true
0.242         	GAMG	8.082280e-01	3.821850e-03	1	true
0.243         	GAMG	8.085200e-01	3.810500e-03	1	true
0.244         	GAMG	8.088090e-01	3.799240e-03	1	true
0.245         	GAMG	8.090940e-01	3.788110e-03	1	true
0.246         	GAMG	8.093770e-01	3.777070e-03	1	true
0.247         	GAMG	8.096560e-01	3.766110e-03	1	true
0.248         	GAMG	8.099330e-01	3.755270e-03	1	true
0.249         	GAMG	8.102070e-01	3.744510e-03	1	true
0.25          	GAMG	8.104770e-01	3.733860e-03	1	true
0.251         	GAMG	8.107450e-01	3.723300e-03	1	true
0.252         	GAMG	8.110100e-01	3.712830e-03	1	true
0.253         	GAMG	8.112720e-01	3.702460e-03	1	true
0.254         	GAMG	8.115310e-01	3.692200e-03	1	true
0.255         	GAMG	8.117890e-01	3.681990e-03	1	true
0.256         	GAMG	8.120430e-01	3.671880e-03	1	true
0.257         	GAMG	8.122950e-01	3.661860e-03	1	true
0.258         	GAMG	8.125440e-01	3.651950e-03	1	true
0.259         	GAMG	8.127910e-01	3.642090e-03	1	true
0.26          	GAMG	8.130340e-01	3.632330e-03	1	true
0.261         	GAMG	8.132760e-01	3.622650e-03	1	true
0.262         	GAMG	8.135150e-01	3.613060e-03	1	true
0.263         	GAMG	8.137520e-01	3.603550e-03	1	true
0.264         	GAMG	8.139860e-01	3.594110e-03	1	true
0.265         	GAMG	8.142190e-01	3.584770e-03	1	true
0.266         	GAMG	8.144480e-01	3.575480e-03	1	true
0.267         	GAMG	8.146760e-01	3.566300e-03	1	true
0.268         	GAMG	8.149010e-01	3.557170e-03	1	true
0.269         	GAMG	8.151260e-01	3.548130e-03	1	true
0.27          	GAMG	8.153460e-01	3.539160e-03	1	true
0.271         	GAMG	8.155650e-01	3.530280e-03	1	true
0.272         	GAMG	8.157820e-01	3.521450e-03	1	true
0.273         	GAMG	8.159970e-01	3.512690e-03	1	true
0.274         	GAMG	8.162100e-01	3.504020e-03	1	true
0.275         	GAMG	8.164200e-01	3.495410e-03	1	true
0.276         	GAMG	8.166290e-01	3.486870e-03	1	true
0.277         	GAMG	8.168360e-01	3.478400e-03	1	true
0.278         	GAMG	8.170400e-01	3.470010e-03	1	true
0.279         	GAMG	8.172430e-01	3.461670e-03	1	true
0.28          	GAMG	8.174440e-01	3.453400e-03	1	true
0.281         	GAMG	8.176430e-01	3.445210e-03	1	true
0.282         	GAMG	8.178400e-01	3.437050e-03	1	true
0.283         	GAMG	8.180350e-01	3.428990e-03	1	true
0.284         	GAMG	8.182290e-01	3.420980e-03	1	true
0.285         	GAMG	8.184200e-01	3.413050e-03	1	true
0.286         	GAMG	8.186100e-01	3.405160e-03	1	true
0.287         	GAMG	8.187980e-01	3.397350e-03	1	true
0.288         	GAMG	8.189850e-01	3.389580e-03	1	true
0.289         	GAMG	8.191690e-01	3.381880e-03	1	true
0.29          	GAMG	8.193530e-01	3.374240e-03	1	true
0.291         	GAMG	8.195350e-01	3.366680e-03	1	true
0.292         	GAMG	8.197140e-01	3.359150e-03	1	true
0.293         	GAMG	8.198930e-01	3.351700e-03	1	true
0.294         	GAMG	8.200700e-01	3.344280e-03	1	true
0.295         	GAMG	8.202440e-01	3.336930e-03	1	true
0.296         	GAMG	8.204170e-01	3.329640e-03	1	true
0.297         	GAMG	8.205890e-01	3.322410e-03	1	true
0.298         	GAMG	8.207590e-01	3.315230e-03	1	true
0.299         	GAMG	8.209270e-01	3.308090e-03	1	true
0.3           	GAMG	8.210950e-01	3.301010e-03	1	true
0.301         	GAMG	8.212610e-01	3.293990e-03	1	true
0.302         	GAMG	8.214250e-01	3.287030e-03	1	true
0.303         	GAMG	8.215870e-01	3.280100e-03	1	true
0.304         	GAMG	8.217490e-01	3.273240e-03	1	true
0.305         	GAMG	8.219090e-01	3.266430e-03	1	true
0.306         	GAMG	8.220680e-01	3.259660e-03	1	true
0.307         	GAMG	8.222250e-01	3.252940e-03	1	true
0.308         	GAMG	8.223810e-01	3.246280e-03	1	true
0.309         	GAMG	8.225360e-01	3.239670e-03	1	true
0.31          	GAMG	8.226890e-01	3.233100e-03	1	true
0.311         	GAMG	8.228410e-01	3.226580e-03	1	true
0.312         	GAMG	8.229920e-01	3.220110e-03	1	true
0.313         	GAMG	8.231410e-01	3.213690e-03	1	true
0.314         	GAMG	8.232890e-01	3.207290e-03	1	true
0.315         	GAMG	8.234350e-01	3.200960e-03	1	true
0.316         	GAMG	8.235810e-01	3.194680e-03	1	true
0.317         	GAMG	8.237250e-01	3.188440e-03	1	true
0.318         	GAMG	8.238680e-01	3.182240e-03	1	true
0.319         	GAMG	8.240100e-01	3.176090e-03	1	true
0.32          	GAMG	8.241510e-01	3.169970e-03	1	true
0.321         	GAMG	8.242910e-01	3.163910e-03	1	true
0.322         	GAMG	8.244300e-01	3.157890e-03	1	true
0.323         	GAMG	8.245670e-01	3.151900e-03	1	true
0.324         	GAMG	8.247040e-01	3.145960e-03	1	true
0.325         	GAMG	8.248390e-01	3.140070e-03	1	true
0.326         	GAMG	8.249730e-01	3.134220e-03	1	true
0.327         	GAMG	8.251060e-01	3.128400e-03	1	true
0.328         	GAMG	8.252380e-01	3.122620e-03	1	true
0.329         	GAMG	8.253690e-01	3.116900e-03	1	true
0.33          	GAMG	8.254990e-01	3.111190e-03	1	true
0.331         	GAMG	8.256280e-01	3.105540e-03	1	true
0.332         	GAMG	8.257560e-01	3.099920e-03	1	true
0.333         	GAMG	8.258830e-01	3.094360e-03	1	true
0.334         	GAMG	8.260090e-01	3.088800e-03	1	true
0.335         	GAMG	8.261330e-01	3.083300e-03	1	true
0.336         	GAMG	8.262580e-01	3.077840e-03	1	true
0.337         	GAMG	8.263800e-01	3.072420e-03	1	true
0.338         	GAMG	8.265020e-01	3.067030e-03	1	true
0.339         	GAMG	8.266230e-01	3.061670e-03	1	true
0.34          	GAMG	8.267430e-01	3.056350e-03	1	true
0.341         	GAMG	8.268620e-01	3.051070e-03	1	true
0.342         	GAMG	8.269800e-01	3.045830e-03	1	true
0.343         	GAMG	8.270970e-01	3.040620e-03	1	true
0.344         	GAMG	8.272140e-01	3.035440e-03	1	true
0.345         	GAMG	8.273290e-01	3.030300e-03	1	true
0.346         	GAMG	8.274430e-01	3.025180e-03	1	true
0.347         	GAMG	8.275570e-01	3.020120e-03	1	true
0.348         	GAMG	8.276700e-01	3.015070e-03	1	true
0.349         	GAMG	8.277810e-01	3.010060e-03	1	true
0.35          	GAMG	8.278920e-01	3.005080e-03	1	true
0.351         	GAMG	8.280020e-01	3.000150e-03	1	true
0.352         	GAMG	8.281120e-01	2.995230e-03	1	true
0.353         	GAMG	8.282200e-01	2.990350e-03	1	true
0.354         	GAMG	8.283280e-01	2.985500e-03	1	true
0.355         	GAMG	8.284350e-01	2.980690e-03	1	true
0.356         	GAMG	8.285410e-01	2.975910e-03	1	true
0.357         	GAMG	8.286470e-01	2.971170e-03	1	true
0.358         	GAMG	8.287510e-01	2.966440e-03	1	true
0.359         	GAMG	8.288550e-01	2.961750e-03	1	true
0.36          	GAMG	8.289590e-01	2.957090e-03	1	true
0.361         	GAMG	8.290610e-01	2.952460e-03	1	true
0.362         	GAMG	8.291630e-01	2.947860e-03	1	true
0.363         	GAMG	8.292640e-01	2.943290e-03	1	true
0.364         	GAMG	8.293650e-01	2.938740e-03	1	true
0.365         	GAMG	8.294640e-01	2.934230e-03	1	true
0.366         	GAMG	8.295630e-01	2.929740e-03	1	true
0.367         	GAMG	8.296610e-01	2.925280e-03	1	true
0.368         	GAMG	8.297580e-01	2.920860e-03	1	true
0.369         	GAMG	8.298540e-01	2.916450e-03	1	true
0.37          	GAMG	8.299500e-01	2.912080e-03	1	true
0.371         	GAMG	8.300450e-01	2.907740e-03	1	true
0.372         	GAMG	8.301400e-01	2.903420e-03	1	true
0.373         	GAMG	8.302340e-01	2.899130e-03	1	true
0.374         	GAMG	8.303270e-01	2.894860e-03	1	true
0.375         	GAMG	8.304200e-01	2.890630e-03	1	true
0.376         	GAMG	8.305120e-01	2.886400e-03	1	true
0.377         	GAMG	8.306030e-01	2.882220e-03	1	true
0.378         	GAMG	8.306940e-01	2.878060e-03	1	true
0.379         	GAMG	8.307840e-01	2.873930e-03	1	true
0.38          	GAMG	8.308730e-01	2.869830e-03	1	true
0.381         	GAMG	8.309620e-01	2.865740e-03	1	true
0.382         	GAMG	8.310510e-01	2.861670e-03	1	true
0.383         	GAMG	8.311390e-01	2.857640e-03	1	true
0.384         	GAMG	8.312260e-01	2.853630e-03	1	true
0.385         	GAMG	8.313130e-01	2.849640e-03	1	true
0.386         	GAMG	8.313990e-01	2.845690e-03	1	true
0.387         	GAMG	8.314850e-01	2.841750e-03	1	true
0.388         	GAMG	8.315700e-01	2.837830e-03	1	true
0.389         	GAMG	8.316540e-01	2.833940e-03	1	true
0.39          	GAMG	8.317380e-01	2.830080e-03	1	true
0.391         	GAMG	8.318210e-01	2.826230e-03	1	true
0.392         	GAMG	8.319040e-01	2.822410e-03	1	true
0.393         	GAMG	8.319860e-01	2.818620e-03	1	true
0.394         	GAMG	8.320680e-01	2.814840e-03	1	true
0.395         	GAMG	8.321490e-01	2.811090e-03	1	true
0.396         	GAMG	8.322300e-01	2.807360e-03	1	true
0.397         	GAMG	8.323100e-01	2.803660e-03	1	true
0.398         	GAMG	8.323900e-01	2.799970e-03	1	true
0.399         	GAMG	8.324690e-01	2.796310e-03	1	true
0.4           	GAMG	8.325480e-01	2.792670e-03	1	true
0.401         	GAMG	8.326260e-01	2.789050e-03	1	true
0.402         	GAMG	8.327040e-01	2.785450e-03	1	true
0.403         	GAMG	8.327810e-01	2.781870e-03	1	true
0.404         	GAMG	8.328580e-01	2.778310e-03	1	true
0.405         	GAMG	8.329340e-01	2.774780e-03	1	true
0.406         	GAMG	8.330100e-01	2.771260e-03	1	true
0.407         	GAMG	8.330850e-01	2.767760e-03	1	true
0.408         	GAMG	8.331610e-01	2.764290e-03	1	true
0.409         	GAMG	8.332350e-01	2.760830e-03	1	true
0.41          	GAMG	8.333090e-01	2.757410e-03	1	true
0.411         	GAMG	8.333830e-01	2.753980e-03	1	true
0.412         	GAMG	8.334560e-01	2.750590e-03	1	true
0.413         	GAMG	8.335290e-01	2.747220e-03	1	true
0.414         	GAMG	8.336020e-01	2.743860e-03	1	true
0.415         	GAMG	8.336740e-01	2.740530e-03	1	true
0.416         	GAMG	8.337450e-01	2.737210e-03	1	true
0.417         	GAMG	8.338170e-01	2.733910e-03	1	true
0.418         	GAMG	8.338880e-01	2.730630e-03	1	true
0.419         	GAMG	8.339580e-01	2.727370e-03	1	true
0.42          	GAMG	8.340280e-01	2.724130e-03	1	true
0.421         	GAMG	8.340980e-01	2.720910e-03	1	true
0.422         	GAMG	8.341680e-01	2.717700e-03	1	true
0.423         	GAMG	8.342370e-01	2.714510e-03	1	true
0.424         	GAMG	8.343050e-01	2.711340e-03	1	true
0.425         	GAMG	8.343740e-01	2.708190e-03	1	true
0.426         	GAMG	8.344420e-01	2.705050e-03	1	true
0.427         	GAMG	8.345090e-01	2.701940e-03	1	true
0.428         	GAMG	8.345760e-01	2.698840e-03	1	true
0.429         	GAMG	8.346430e-01	2.695760e-03	1	true
0.43          	GAMG	8.347090e-01	2.692690e-03	1	true
0.431         	GAMG	8.347760e-01	2.689640e-03	1	true
0.432         	GAMG	8.348410e-01	2.686610e-03	1	true
0.433         	GAMG	8.349070e-01	2.683600e-03	1	true
0.434         	GAMG	8.349720e-01	2.680600e-03	1	true
0.435         	GAMG	8.350370e-01	2.677620e-03	1	true
0.436         	GAMG	8.351010e-01	2.674650e-03	1	true
0.437         	GAMG	8.351650e-01	2.671710e-03	1	true
0.438         	GAMG	8.352290e-01	2.668780e-03	1	true
0.439         	GAMG	8.352930e-01	2.665860e-03	1	true
0.44          	GAMG	8.353560e-01	2.662960e-03	1	true
0.441         	GAMG	8.354190e-01	2.660080e-03	1	true
0.442         	GAMG	8.354810e-01	2.657210e-03	1	true
0.443         	GAMG	8.355440e-01	2.654370e-03	1	true
0.444         	GAMG	8.356060e-01	2.651520e-03	1	true
0.445         	GAMG	8.356670e-01	2.648700e-03	1	true
0.446         	GAMG	8.357290e-01	2.645890e-03	1	true
0.447         	GAMG	8.357900e-01	2.643100e-03	1	true
0.448         	GAMG	8.358510e-01	2.640330e-03	1	true
0.449         	GAMG	8.359110e-01	2.637570e-03	1	true
0.45          	GAMG	8.359710e-01	2.634830e-03	1	true
0.451         	GAMG	8.360310e-01	2.632090e-03	1	true
0.452         	GAMG	8.360910e-01	2.629370e-03	1	true
0.453         	GAMG	8.361500e-01	2.626670e-03	1	true
0.454         	GAMG	8.362090e-01	2.623980e-03	1	true
0.455         	GAMG	8.362680e-01	2.621310e-03	1	true
0.456         	GAMG	8.363260e-01	2.618650e-03	1	true
0.457         	GAMG	8.363850e-01	2.616000e-03	1	true
0.458         	GAMG	8.364430e-01	2.613370e-03	1	true
0.459         	GAMG	8.365000e-01	2.610760e-03	1	true
0.46          	GAMG	8.365580e-01	2.608150e-03	1	true
0.461         	GAMG	8.366150e-01	2.605560e-03	1	true
0.462         	GAMG	8.366720e-01	2.602990e-03	1	true
0.463         	GAMG	8.367290e-01	2.600420e-03	1	true
0.464         	GAMG	8.367850e-01	2.597870e-03	1	true
0.465         	GAMG	8.368410e-01	2.595340e-03	1	true
0.466         	GAMG	8.368970e-01	2.592810e-03	1	true
0.467         	GAMG	8.369530e-01	2.590310e-03	1	true
0.468         	GAMG	8.370090e-01	2.587810e-03	1	true
0.469         	GAMG	8.370640e-01	2.585320e-03	1	true
0.47          	GAMG	8.371190e-01	2.582870e-03	1	true
0.471         	GAMG	8.371740e-01	2.580400e-03	1	true
0.472         	GAMG	8.372290e-01	2.577960e-03	1	true
0.473         	GAMG	8.372830e-01	2.575530e-03	1	true
0.474         	GAMG	8.373370e-01	2.573100e-03	1	true
0.475         	GAMG	8.373920e-01	2.570700e-03	1	true
0.476         	GAMG	8.374450e-01	2.568310e-03	1	true
0.477         	GAMG	8.374990e-01	2.565920e-03	1	true
0.478         	GAMG	8.375530e-01	2.563550e-03	1	true
0.479         	GAMG	8.376070e-01	2.561200e-03	1	true
0.48          	GAMG	8.376600e-01	2.558860e-03	1	true
0.481         	GAMG	8.377130e-01	2.556530e-03	1	true
0.482         	GAMG	8.377650e-01	2.554190e-03	1	true
0.483         	GAMG	8.378180e-01	2.551900e-03	1	true
0.484         	GAMG	8.378700e-01	2.549590e-03	1	true
0.485         	GAMG	8.379220e-01	2.547310e-03	1	true
0.486         	GAMG	8.379740e-01	2.545040e-03	1	true
0.487         	GAMG	8.380250e-01	2.542770e-03	1	true
0.488         	GAMG	8.380770e-01	2.540530e-03	1	true
0.489         	GAMG	8.381290e-01	2.538280e-03	1	true
0.49          	GAMG	8.381800e-01	2.536050e-03	1	true
0.491         	GAMG	8.382310e-01	2.533830e-03	1	true
0.492         	GAMG	8.382820e-01	2.531640e-03	1	true
0.493         	GAMG	8.383330e-01	2.529440e-03	1	true
0.494         	GAMG	8.383830e-01	2.527260e-03	1	true
0.495         	GAMG	8.384330e-01	2.525080e-03	1	true
0.496         	GAMG	8.384840e-01	2.522910e-03	1	true
0.497         	GAMG	8.385340e-01	2.520770e-03	1	true
0.498         	GAMG	8.385830e-01	2.518630e-03	1	true
0.499         	GAMG	8.386330e-01	2.516500e-03	1	true
0.5           	GAMG	8.386830e-01	2.514370e-03	1	true
0.501         	GAMG	8.387320e-01	2.512280e-03	1	true
0.502         	GAMG	8.387810e-01	2.510170e-03	1	true
0.503         	GAMG	8.388300e-01	2.508090e-03	1	true
0.504         	GAMG	8.388790e-01	2.506010e-03	1	true
0.505         	GAMG	8.389280e-01	2.503940e-03	1	true
0.506         	GAMG	8.389760e-01	2.501880e-03	1	true
0.507         	GAMG	8.390240e-01	2.499850e-03	1	true
0.508         	GAMG	8.390730e-01	2.497800e-03	1	true
0.509         	GAMG	8.391210e-01	2.495780e-03	1	true
0.51          	GAMG	8.391690e-01	2.493760e-03	1	true
0.511         	GAMG	8.392170e-01	2.491750e-03	1	true
0.512         	GAMG	8.392650e-01	2.489750e-03	1	true
0.513         	GAMG	8.393120e-01	2.487760e-03	1	true
0.514         	GAMG	8.393590e-01	2.485790e-03	1	true
0.515         	GAMG	8.394060e-01	2.483820e-03	1	true
0.516         	GAMG	8.394540e-01	2.481860e-03	1	true
0.517         	GAMG	8.395010e-01	2.479910e-03	1	true
0.518         	GAMG	8.395480e-01	2.477980e-03	1	true
0.519         	GAMG	8.395940e-01	2.476050e-03	1	true
0.52          	GAMG	8.396410e-01	2.474130e-03	1	true
0.521         	GAMG	8.396870e-01	2.472220e-03	1	true
0.522         	GAMG	8.397340e-01	2.470310e-03	1	true
0.523         	GAMG	8.397810e-01	2.468420e-03	1	true
0.524         	GAMG	8.398270e-01	2.466540e-03	1	true
0.525         	GAMG	8.398730e-01	2.464660e-03	1	true
0.526         	GAMG	8.399190e-01	2.462790e-03	1	true
0.527         	GAMG	8.399620e-01	2.460930e-03	1	true
0.528         	GAMG	8.400040e-01	2.459070e-03	1	true
0.529         	GAMG	8.400440e-01	2.457220e-03	1	true
0.53          	GAMG	8.400840e-01	2.455360e-03	1	true
0.531         	GAMG	8.401240e-01	2.453540e-03	1	true
0.532         	GAMG	8.401630e-01	2.451710e-03	1	true
0.533         	GAMG	8.402030e-01	2.449880e-03	1	true
0.534         	GAMG	8.402420e-01	2.448080e-03	1	true
0.535         	GAMG	8.402810e-01	2.446280e-03	1	true
0.536         	GAMG	8.403200e-01	2.444480e-03	1	true
0.537         	GAMG	8.403590e-01	2.442700e-03	1	true
0.538         	GAMG	8.403980e-01	2.440920e-03	1	true
0.539         	GAMG	8.404370e-01	2.439160e-03	1	true
0.54          	GAMG	8.404750e-01	2.437400e-03	1	true
0.541         	GAMG	8.405130e-01	2.435650e-03	1	true
0.542         	GAMG	8.405510e-01	2.433910e-03	1	true
0.543         	GAMG	8.405890e-01	2.432180e-03	1	true
0.544         	GAMG	8.406280e-01	2.430440e-03	1	true
0.545         	GAMG	8.406650e-01	2.428740e-03	1	true
0.546         	GAMG	8.407030e-01	2.427020e-03	1	true
0.547         	GAMG	8.407410e-01	2.425310e-03	1	true
0.548         	GAMG	8.407790e-01	2.423620e-03	1	true
0.549         	GAMG	8.408160e-01	2.421950e-03	1	true
0.55          	GAMG	8.408530e-01	2.420260e-03	1	true
0.551         	GAMG	8.408910e-01	2.418590e-03	1	true
0.552         	GAMG	8.409280e-01	2.416940e-03	1	true
0.553         	GAMG	8.409640e-01	2.415270e-03	1	true
0.554         	GAMG	8.410010e-01	2.413630e-03	1	true
0.555         	GAMG	8.410380e-01	2.411990e-03	1	true
0.556         	GAMG	8.410740e-01	2.410360e-03	1	true
0.557         	GAMG	8.411100e-01	2.408730e-03	1	true
0.558         	GAMG	8.411470e-01	2.407100e-03	1	true
0.559         	GAMG	8.411830e-01	2.405500e-03	1	true
0.56          	GAMG	8.412190e-01	2.403890e-03	1	true
0.561         	GAMG	8.412550e-01	2.402300e-03	1	true
0.562         	GAMG	8.412910e-01	2.400710e-03	1	true
0.563         	GAMG	8.413270e-01	2.399120e-03	1	true